{"id":122284,"url":"http://en.wikipedia.org/wiki/Neptunium","text":"=\"preserve\">Neptunium is a chemical element that has the symbol Np on the periodic table. It has the atomic number 93 which means it has 93 protons and electrons in its atoms. It is named after the planet Neptune in the same way as Uranium is named after the planet Uranus.\nNeptunium was discovered in the year of 1940 by two men named Edwin McMillan and Phillip H. Abelson at Berkeley Radiation Center of the University of California. Neptunium is a silvery- metallic element and is radioactive. Its melting point is 637 degrees Celsius and it's boiling point is 4000 degrees Celsius. Its atomic mass is 237 u.","categories":[],"infobox_types":[],"annotations":[{"uri":"Chemical","surface_form":"chemical","offset":27},{"uri":"Chemical_element","surface_form":"element","offset":36},{"uri":"Periodic_table","surface_form":"periodic table","offset":74},{"uri":"Proton","surface_form":"proton","offset":140},{"uri":"Electron","surface_form":"electron","offset":152},{"uri":"Atom","surface_form":"atom","offset":169},{"uri":"Planet","surface_form":"planet","offset":198},{"uri":"Neptune_(planet)","surface_form":"Neptune","offset":205},{"uri":"Uranium","surface_form":"Uranium","offset":232},{"uri":"Uranus","surface_form":"Uranus","offset":266}]}